24
 energy: -35.631472601995 gnorm: 0.000208709513 xtb: 6.6.1 (8d0f1dd)
O           -3.18044520106779       -0.36308106035026        0.18525128009828
C           -1.94388186977512       -0.00942067611874       -0.26599024242786
C           -3.27129774395325       -1.07704901836458        1.39048703460945
C           -1.91567700024810        0.70284200518838       -1.48032237276738
C           -0.74939519500948       -0.29443493091702        0.36923692321706
O           -3.09958593129294        0.97540167452119       -2.09497033043045
C           -0.69772156119433        1.09795302459165       -2.00557524884203
C            0.48412457431048        0.10661486595053       -0.15772996967053
C            0.48977545385570        0.80753887008807       -1.35848722712852
C            1.69220450470073       -0.23256934099220        0.57932947241604
C            2.94300730873844        0.10400903448845        0.27267808308720
C            4.13329006100010       -0.28054877278294        1.08317892116181
H           -2.75837706330488       -2.04312642253260        1.32796455990487
H           -2.86493004534637       -0.50466793800864        2.23163327575353
H           -4.33492932496560       -1.24558040766386        1.55215681782140
H           -0.75285929027887       -0.83958169463296        1.30048874838021
H           -2.93089212177776        1.46383811085295       -2.90977888311486
H           -0.68240389752710        1.64353544779937       -2.94045219665132
H            1.41854601710713        1.12995528663813       -1.80023942004511
H            1.52519968931286       -0.82036329765314        1.47484818962671
H            3.15963487773523        0.69429322224961       -0.60659352714192
H            4.65582408065385        0.61076084355871        1.43223958217964
H            4.83480843982276       -0.85307530799215        0.47568718276182
H            3.84599123850420       -0.87833351791759        1.94494934720223
